Program Version,EnergyPlus-Windows-64 8.1.0.009, YMD=2017.08.11 12:38
1,5,Environment Title[],Latitude[deg],Longitude[deg],Time Zone[],Elevation[m]
2,6,Day of Simulation[],Month[],Day of Month[],DST Indicator[1=yes 0=no],Hour[],StartMinute[],EndMinute[],DayType
3,3,Cumulative Day of Simulation[],Month[],Day of Month[],DST Indicator[1=yes 0=no],DayType  ! When Daily Report Variables Requested
4,2,Cumulative Days of Simulation[],Month[]  ! When Monthly Report Variables Requested
5,1,Cumulative Days of Simulation[] ! When Run Period Report Variables Requested
6,1,Environment,Site Outdoor Air Drybulb Temperature [C] !TimeStep
7,1,Environment,Site Outdoor Air Wetbulb Temperature [C] !TimeStep
8,1,Environment,Site Outdoor Air Relative Humidity [%] !TimeStep
9,1,Environment,Site Wind Speed [m/s] !TimeStep
10,1,Environment,Site Wind Direction [deg] !TimeStep
387,1,BASEMENT_PLUGMISC_EQUIP,Electric Equipment Electric Power [W] !TimeStep
419,1,CORE_BOTTOM_PLUGMISC_EQUIP,Electric Equipment Electric Power [W] !TimeStep
431,1,CORE_MID_PLUGMISC_EQUIP,Electric Equipment Electric Power [W] !TimeStep
443,1,CORE_TOP_PLUGMISC_EQUIP,Electric Equipment Electric Power [W] !TimeStep
455,1,PERIMETER_BOT_ZN_1_PLUGMISC_EQUIP,Electric Equipment Electric Power [W] !TimeStep
467,1,PERIMETER_BOT_ZN_2_PLUGMISC_EQUIP,Electric Equipment Electric Power [W] !TimeStep
479,1,PERIMETER_BOT_ZN_3_PLUGMISC_EQUIP,Electric Equipment Electric Power [W] !TimeStep
491,1,PERIMETER_BOT_ZN_4_PLUGMISC_EQUIP,Electric Equipment Electric Power [W] !TimeStep
503,1,PERIMETER_MID_ZN_1_PLUGMISC_EQUIP,Electric Equipment Electric Power [W] !TimeStep
515,1,PERIMETER_MID_ZN_2_PLUGMISC_EQUIP,Electric Equipment Electric Power [W] !TimeStep
527,1,PERIMETER_MID_ZN_3_PLUGMISC_EQUIP,Electric Equipment Electric Power [W] !TimeStep
539,1,PERIMETER_MID_ZN_4_PLUGMISC_EQUIP,Electric Equipment Electric Power [W] !TimeStep
551,1,PERIMETER_TOP_ZN_1_PLUGMISC_EQUIP,Electric Equipment Electric Power [W] !TimeStep
563,1,PERIMETER_TOP_ZN_2_PLUGMISC_EQUIP,Electric Equipment Electric Power [W] !TimeStep
575,1,PERIMETER_TOP_ZN_3_PLUGMISC_EQUIP,Electric Equipment Electric Power [W] !TimeStep
587,1,PERIMETER_TOP_ZN_4_PLUGMISC_EQUIP,Electric Equipment Electric Power [W] !TimeStep
767,1,EMS,currentDayOfMonth [] !TimeStep
768,1,EMS,currentDayOfWeek [] !TimeStep
769,1,EMS,currentTimeOfDay [] !TimeStep
770,1,EMS,currentHoliday [] !TimeStep
843,1,BASEMENT,Zone Air Temperature [C] !TimeStep
876,1,CORE_BOTTOM,Zone Air Temperature [C] !TimeStep
909,1,CORE_MID,Zone Air Temperature [C] !TimeStep
942,1,CORE_TOP,Zone Air Temperature [C] !TimeStep
975,1,GROUNDFLOOR_PLENUM,Zone Air Temperature [C] !TimeStep
1008,1,MIDFLOOR_PLENUM,Zone Air Temperature [C] !TimeStep
1041,1,PERIMETER_BOT_ZN_1,Zone Air Temperature [C] !TimeStep
1074,1,PERIMETER_BOT_ZN_2,Zone Air Temperature [C] !TimeStep
1107,1,PERIMETER_BOT_ZN_3,Zone Air Temperature [C] !TimeStep
1140,1,PERIMETER_BOT_ZN_4,Zone Air Temperature [C] !TimeStep
1173,1,PERIMETER_MID_ZN_1,Zone Air Temperature [C] !TimeStep
1206,1,PERIMETER_MID_ZN_2,Zone Air Temperature [C] !TimeStep
1239,1,PERIMETER_MID_ZN_3,Zone Air Temperature [C] !TimeStep
1272,1,PERIMETER_MID_ZN_4,Zone Air Temperature [C] !TimeStep
1305,1,PERIMETER_TOP_ZN_1,Zone Air Temperature [C] !TimeStep
1338,1,PERIMETER_TOP_ZN_2,Zone Air Temperature [C] !TimeStep
1371,1,PERIMETER_TOP_ZN_3,Zone Air Temperature [C] !TimeStep
1404,1,PERIMETER_TOP_ZN_4,Zone Air Temperature [C] !TimeStep
1437,1,TOPFLOOR_PLENUM,Zone Air Temperature [C] !TimeStep
1593,1,Whole Building,Facility Total Building Electric Demand Power [W] !TimeStep
1594,1,Whole Building,Facility Total HVAC Electric Demand Power [W] !TimeStep
1595,1,Whole Building,Facility Total Electric Demand Power [W] !TimeStep
1596,1,HTGSETP_SCH,Schedule Value [] !TimeStep
1597,1,HW-LOOP-TEMP-SCHEDULE,Schedule Value [] !TimeStep
1598,1,CW-LOOP-TEMP-SCHEDULE,Schedule Value [] !TimeStep
1599,1,CLGSETP_SCH,Schedule Value [] !TimeStep
1600,1,BLDG_LIGHT_SCH,Schedule Value [] !TimeStep
1837,1,COOLSYS1 CHILLER 1,Chiller Evaporator Outlet Temperature [C] !TimeStep
1851,1,COOLSYS1 CHILLER 2,Chiller Evaporator Outlet Temperature [C] !TimeStep
1885,1,HEATSYS1 BOILER,Boiler Outlet Temperature [C] !TimeStep
End of Data Dictionary
1,587017 587017 587017 TMY2 WMO#=587017,  41.99, -87.50,  -6.00, 172.00
2,1, 7, 1, 1, 1, 0.00, 5.00,Thursday       
6,22.7333333333333
7,20.2498447537494
8,80.1666666666667
9,2.30833333333333
10,178.333333333333
387,15335.6083286733
419,10899.1190589978
431,10899.1190589978
443,10899.1190589978
455,1348.9583405952
467,869.30104275936
479,1348.9288435616
491,869.30104275936
503,1348.9583405952
515,869.30104275936
527,1348.9288435616
539,869.30104275936
551,1348.9583405952
563,869.30104275936
575,1348.9288435616
587,869.30104275936
767,1.
768,5.
769,8.333333333333333E-002
770,0.0
1596,15.6
1597,82.2
1598,6.30000019073
1599,26.
1600,0.800000011921
843,24.7848717052807
876,24.6746253651824
909,24.6992835710403
942,24.762515728602
975,24.9881771685239
1008,24.9396262831826
1041,24.545417354525
1074,23.543350764062
1107,24.5591005610669
1140,23.5416974467025
1173,24.4952979231049
1206,23.3200926013312
1239,24.5431723044818
1272,23.3544532692813
1305,24.5696953831339
1338,23.5837590124214
1371,24.5865015416795
1404,23.410378683
1437,24.8302911292367
1593,661572.928561969
1594,2.25730056112338
1595,661575.18586253
1837,10.1194320433259
1851,10.1194320433259
1885,78.1858479265176
2,1, 7, 1, 1, 1, 5.00,10.00,Thursday       
6,22.7666666666667
7,20.171290993682
8,79.3333333333333
9,2.51666666666667
10,186.666666666667
387,15335.6083286733
419,10899.1190589978
431,10899.1190589978
443,10899.1190589978
455,1348.9583405952
467,869.30104275936
479,1348.9288435616
491,869.30104275936
503,1348.9583405952
515,869.30104275936
527,1348.9288435616
539,869.30104275936
551,1348.9583405952
563,869.30104275936
575,1348.9288435616
587,869.30104275936
767,1.
768,5.
769,0.166666666666667
770,0.0
1596,15.6
1597,82.2
1598,6.30000019073
1599,26.
1600,0.800000011921
843,25.0512668648372
876,25.2476901787105
909,25.2900514602071
942,25.3963157903949
975,25.124055113071
1008,25.0804546197619
1041,25.1002628789659
1074,24.3589649054524
1107,25.0776315030145
1140,24.4263132100398
1173,25.0574379662023
1206,24.1466483180449
1239,25.0672917622091
1272,24.2676738476608
1305,25.1562531883824
1338,24.4006823283258
1371,25.1382427750603
1404,24.3452595813773
1437,24.9239980595743
1593,661572.928561969
1594,2.2552674124245
1595,661575.183829381
1837,10.1194320433259
1851,10.1194320433259
1885,78.1858479265176
2,1, 7, 1, 1, 1,10.00,15.00,Thursday       
6,22.8
7,20.0920880576265
8,78.5
9,2.725
10,195.
387,15335.6083286733
419,10899.1190589978
431,10899.1190589978
443,10899.1190589978
455,1348.9583405952
467,869.30104275936
479,1348.9288435616
491,869.30104275936
503,1348.9583405952
515,869.30104275936
527,1348.9288435616
539,869.30104275936
551,1348.9583405952
563,869.30104275936
575,1348.9288435616
587,869.30104275936
767,1.
768,5.
769,0.25
770,0.0
1596,15.6
1597,82.2
1598,6.30000019073
1599,26.
1600,0.800000011921
843,25.246061379274
876,25.6302083465121
909,25.682352850433
942,25.8104570056698
975,25.2188935781079
1008,25.1785150148809
1041,25.4194910935236
1074,24.8099129248293
1107,25.3776269283529
1140,24.9093105061284
1173,25.3794386834655
1206,24.6004559935602
1239,25.3689593310633
1272,24.7611521913998
1305,25.4859889094578
1338,24.8451224928021
1371,25.4502210365108
1404,24.8458318180848
1437,24.9812825042245
1593,661572.928561969
1594,2.25376112909124
1595,661575.182323098
1837,10.1194320433259
1851,10.1194320433259
1885,78.1858479265176
2,1, 7, 1, 1, 1,15.00,20.00,Thursday       
6,22.8333333333333
7,20.0122132707474
8,77.6666666666667
9,2.93333333333333
10,203.333333333333
387,15335.6083286733
419,10899.1190589978
431,10899.1190589978
443,10899.1190589978
455,1348.9583405952
467,869.30104275936
479,1348.9288435616
491,869.30104275936
503,1348.9583405952
515,869.30104275936
527,1348.9288435616
539,869.30104275936
551,1348.9583405952
563,869.30104275936
575,1348.9288435616
587,869.30104275936
767,1.
768,5.
769,0.333333333333333
770,0.0
1596,15.6
1597,82.2
1598,6.30000019073
1599,26.
1600,0.800000011921
843,25.4120047325318
876,25.9884554064376
909,26.0456426283814
942,26.1857270926433
975,25.3087718639312
1008,25.271213647113
1041,25.6790518037316
1074,25.1620891349037
1107,25.6219344689326
1140,25.282009372433
1173,25.6387988984559
1206,24.9523623247073
1239,25.612366877616
1272,25.1370540777452
1305,25.74639943407
1338,25.1856084543752
1371,25.6972028152372
1404,25.2229792172716
1437,25.0351226013817
1593,661572.928561969
1594,2.25277758533604
1595,661575.181339554
1837,10.1194320433259
1851,10.1194320433259
1885,78.1858479265176
2,1, 7, 1, 1, 1,20.00,25.00,Thursday       
6,22.8666666666667
7,19.9316656965657
8,76.8333333333333
9,3.14166666666667
10,211.666666666667
387,15335.6083286733
419,10899.1190589978
431,10899.1190589978
443,10899.1190589978
455,1348.9583405952
467,869.30104275936
479,1348.9288435616
491,869.30104275936
503,1348.9583405952
515,869.30104275936
527,1348.9288435616
539,869.30104275936
551,1348.9583405952
563,869.30104275936
575,1348.9288435616
587,869.30104275936
767,1.
768,5.
769,0.416666666666667
770,0.0
1596,15.6
1597,82.2
1598,6.30000019073
1599,26.
1600,0.800000011921
843,25.4930917829096
876,26.2171468565111
909,26.2754167720082
942,26.423683262091
975,25.3672696080382
1008,25.3313282262274
1041,25.8365951925088
1074,25.3656733329801
1107,25.7709581260272
1140,25.49242680481
1173,25.7926465599576
1206,25.1556957416778
1239,25.7560868846163
1272,25.3457736886147
1305,25.8954508141794
1338,25.3760614501581
1371,25.8382552693155
1404,25.4290669408916
1437,25.0731219226394
1593,661572.928561969
1594,2.2522352936245
1595,661575.180797262
1837,10.1194320433259
1851,10.1194320433259
1885,78.1858479265176
2,1, 7, 1, 1, 1,25.00,30.00,Thursday       
6,22.9
7,19.8504550328849
8,76.
9,3.35
10,220.
387,15335.6083286733
419,10899.1190589978
431,10899.1190589978
443,10899.1190589978
455,1348.9583405952
467,869.30104275936
479,1348.9288435616
491,869.30104275936
503,1348.9583405952
515,869.30104275936
527,1348.9288435616
539,869.30104275936
551,1348.9583405952
563,869.30104275936
575,1348.9288435616
587,869.30104275936
767,1.
768,5.
769,0.5
770,0.0
1596,15.6
1597,82.2
1598,6.30000019073
1599,26.
1600,0.800000011921
843,25.5459102266793
876,26.3862329011716
909,26.4465247890579
942,26.6014636105836
975,25.4178738940081
1008,25.3833242100238
1041,25.9583264543846
1074,25.5252579979422
1107,25.8874484676434
1140,25.6611884461037
1173,25.9160615139168
1206,25.3208077981968
1239,25.8730168594388
1272,25.5186021755142
1305,26.0174096435952
1338,25.5338341804462
1371,25.9548140198475
1404,25.5952224021215
1437,25.108611051852
1593,661572.928561969
1594,2.25213657633728
1595,661575.180698545
1837,10.1194320433259
1851,10.1194320433259
1885,78.1858479265176
2,1, 7, 1, 1, 1,30.00,35.00,Thursday       
6,22.9333333333333
7,19.7685478079369
8,75.1666666666667
9,3.55833333333333
10,228.333333333333
387,15335.6083286733
419,10899.1190589978
431,10899.1190589978
443,10899.1190589978
455,1348.9583405952
467,869.30104275936
479,1348.9288435616
491,869.30104275936
503,1348.9583405952
515,869.30104275936
527,1348.9288435616
539,869.30104275936
551,1348.9583405952
563,869.30104275936
575,1348.9288435616
587,869.30104275936
767,1.
768,5.
769,0.583333333333333
770,0.0
1596,15.6
1597,82.2
1598,6.30000019073
1599,26.
1600,0.800000011921
843,25.5733523448808
876,26.4834069076609
909,26.2638956944833
942,25.8268291095287
975,25.4525303706056
1008,25.462477265225
1041,26.0305279092472
1074,25.6245816940895
1107,25.9567078311872
1140,25.7656510058441
1173,25.5832837490755
1206,24.6850351454384
1239,25.6036426836179
1272,24.7813069873161
1305,24.8953739919141
1338,23.5710618306789
1371,24.972390834566
1404,23.2274328058912
1437,25.2601973557332
1593,661572.928561969
1594,251465.062275226
1595,913037.990837194
1837,6.30000019073
1851,6.30000019073
1885,78.1858479265176
2,1, 7, 1, 1, 1,35.00,40.00,Thursday       
6,22.9666666666667
7,19.6859534820878
8,74.3333333333333
9,3.76666666666667
10,236.666666666667
387,15335.6083286733
419,10899.1190589978
431,10899.1190589978
443,10899.1190589978
455,1348.9583405952
467,869.30104275936
479,1348.9288435616
491,869.30104275936
503,1348.9583405952
515,869.30104275936
527,1348.9288435616
539,869.30104275936
551,1348.9583405952
563,869.30104275936
575,1348.9288435616
587,869.30104275936
767,1.
768,5.
769,0.666666666666667
770,0.0
1596,15.6
1597,82.2
1598,6.30000019073
1599,26.
1600,0.800000011921
843,25.6004622344893
876,25.8556674782001
909,25.5202439281948
942,25.2325657834762
975,25.5584489262433
1008,25.4927789849556
1041,25.0493207274302
1074,23.7586219205103
1107,25.1137822091472
1140,23.6775668630729
1173,24.4602113917709
1206,22.8881320318135
1239,24.6475841400829
1272,22.7778465113383
1305,24.197973464197
1338,22.6607817888382
1371,24.3380856177875
1404,22.2599787788675
1437,25.1599343179873
1593,661572.928561969
1594,328868.598172957
1595,990441.526734926
1837,6.30000019073
1851,6.30000019073
1885,78.1858479265176
2,1, 7, 1, 1, 1,40.00,45.00,Thursday       
6,23.
7,19.6026694467392
8,73.5
9,3.975
10,245.
387,15335.6083286733
419,10899.1190589978
431,10899.1190589978
443,10899.1190589978
455,1348.9583405952
467,869.30104275936
479,1348.9288435616
491,869.30104275936
503,1348.9583405952
515,869.30104275936
527,1348.9288435616
539,869.30104275936
551,1348.9583405952
563,869.30104275936
575,1348.9288435616
587,869.30104275936
767,1.
768,5.
769,0.75
770,0.0
1596,15.6
1597,82.2
1598,6.30000019073
1599,26.
1600,0.800000011921
843,25.6201706187936
876,25.3318198812505
909,25.1169222671576
942,24.912537719772
975,25.4586035048747
1008,25.3095278927609
1041,24.3606603265189
1074,22.7843705807075
1107,24.4953469523319
1140,22.6556983008176
1173,24.0130551825001
1206,22.3408042450667
1239,24.2450359270379
1272,22.2096202838827
1305,23.9486785104575
1338,22.4213790839008
1371,24.1032136778272
1404,22.0326721579131
1437,24.9999622634965
1593,661572.928561969
1594,321618.574879205
1595,983191.503441173
1837,6.30000019073
1851,6.30000019073
1885,78.1858479265176
2,1, 7, 1, 1, 1,45.00,50.00,Thursday       
6,23.0333333333333
7,19.5186647384434
8,72.6666666666667
9,4.18333333333333
10,253.333333333333
387,15335.6083286733
419,10899.1190589978
431,10899.1190589978
443,10899.1190589978
455,1348.9583405952
467,869.30104275936
479,1348.9288435616
491,869.30104275936
503,1348.9583405952
515,869.30104275936
527,1348.9288435616
539,869.30104275936
551,1348.9583405952
563,869.30104275936
575,1348.9288435616
587,869.30104275936
767,1.
768,5.
769,0.833333333333333
770,0.0
1596,15.6
1597,82.2
1598,6.30000019073
1599,26.
1600,0.800000011921
843,25.6385155174662
876,24.9699756526293
909,24.8731080894758
942,24.7177581377805
975,25.2513414117724
1008,25.1001391869916
1041,24.0500350354224
1074,22.4572262202222
1107,24.204439846324
1140,22.3294709766533
1173,23.8110652306163
1206,22.127477104812
1239,24.0588507872692
1272,21.9915406547851
1305,23.8205126389219
1338,22.2969881875967
1371,23.9827371470944
1404,21.9085588022399
1437,24.8638410638428
1593,661572.928561969
1594,321335.730990299
1595,982908.659552267
1837,6.30000019073
1851,6.30000019073
1885,78.1858479265176
2,1, 7, 1, 1, 1,50.00,55.00,Thursday       
6,23.0666666666667
7,19.4339615202803
8,71.8333333333333
9,4.39166666666667
10,261.666666666667
387,15335.6083286733
419,10899.1190589978
431,10899.1190589978
443,10899.1190589978
455,1348.9583405952
467,869.30104275936
479,1348.9288435616
491,869.30104275936
503,1348.9583405952
515,869.30104275936
527,1348.9288435616
539,869.30104275936
551,1348.9583405952
563,869.30104275936
575,1348.9288435616
587,869.30104275936
767,1.
768,5.
769,0.916666666666667
770,0.0
1596,15.6
1597,82.2
1598,6.30000019073
1599,26.
1600,0.800000011921
843,25.6502844579297
876,24.8303663328325
909,24.7786284552404
942,24.6400963106053
975,25.1278137019353
1008,24.9932590622778
1041,23.9540939737151
1074,22.3552924585085
1107,24.1143072004952
1140,22.2249833167296
1173,23.7428345351574
1206,22.0515266669873
1239,23.9965934741246
1272,21.9107406110757
1305,23.7695712732108
1338,22.240756474716
1371,23.9357776546828
1404,21.8477290328229
1437,24.79521907388
1593,661572.928561969
1594,319042.984572885
1595,980615.913134853
1837,6.30000019073
1851,6.30000019073
1885,78.1858479265176
2,1, 7, 1, 1, 1,55.00,60.00,Thursday       
6,23.1
7,19.3485392703465
8,71.
9,4.6
10,270.
387,15335.6083286733
419,10899.1190589978
431,10899.1190589978
443,10899.1190589978
455,1348.9583405952
467,869.30104275936
479,1348.9288435616
491,869.30104275936
503,1348.9583405952
515,869.30104275936
527,1348.9288435616
539,869.30104275936
551,1348.9583405952
563,869.30104275936
575,1348.9288435616
587,869.30104275936
767,1.
768,5.
769,1.
770,0.0
1596,15.6
1597,82.2
1598,6.30000019073
1599,26.
1600,0.800000011921
843,25.6604049204506
876,24.7505307932973
909,24.7244351055848
942,24.5933990364985
975,25.0423714154289
1008,24.9228397172638
1041,23.9010209968474
1074,22.2944892610223
1107,24.0657918595772
1140,22.160815967367
1173,23.7019253836852
1206,22.0029023977216
1239,23.9601965965423
1272,21.8572112296797
1305,23.7350246492277
1338,22.1990337778712
1371,23.9044504872482
1404,21.8017436108655
1437,24.745573899216
1593,661572.928561969
1594,316999.611153116
1595,978572.539715085
1837,6.30000019073
1851,6.30000019073
1885,78.1858479265176
2,1, 7, 1, 1, 2, 0.00, 5.00,Thursday       
6,23.0666666666667
7,19.3298117353406
8,71.0833333333333
9,4.55833333333333
10,271.666666666667
387,15335.6083286733
419,10899.1190589978
431,10899.1190589978
443,10899.1190589978
455,1348.9583405952
467,869.30104275936
479,1348.9288435616
491,869.30104275936
503,1348.9583405952
515,869.30104275936
527,1348.9288435616
539,869.30104275936
551,1348.9583405952
563,869.30104275936
575,1348.9288435616
587,869.30104275936
767,1.
768,5.
769,1.08333333333333
770,0.0
1596,15.6
1597,82.2
1598,6.30000019073
1599,26.
1600,0.800000011921
843,25.6674010599582
876,24.7123636453367
909,25.267754220773
942,25.2195523704566
975,24.9948033455606
1008,25.0784989326847
1041,23.8713621310245
1074,22.2565956179004
1107,24.038975578859
1140,22.1198955863279
1173,24.5559663230439
1206,23.3348933819235
1239,24.696577818965
1272,23.3402730366578
1305,24.6086756953742
1338,23.5211147466307
1371,24.6884418061065
1404,23.3242367305682
1437,24.8809728620485
1593,661572.928561969
1594,127216.981278698
1595,788789.909840667
1837,6.30000019073
1851,6.30000019073
1885,78.1858479265176
2,1, 7, 1, 1, 2, 5.00,10.00,Thursday       
6,23.0333333333333
7,19.3110541391851
8,71.1666666666667
9,4.51666666666667
10,273.333333333333
387,15335.6083286733
419,10899.1190589978
431,10899.1190589978
443,10899.1190589978
455,1348.9583405952
467,869.30104275936
479,1348.9288435616
491,869.30104275936
503,1348.9583405952
515,869.30104275936
527,1348.9288435616
539,869.30104275936
551,1348.9583405952
563,869.30104275936
575,1348.9288435616
587,869.30104275936
767,1.
768,5.
769,1.16666666666667
770,0.0
1596,15.6
1597,82.2
1598,6.30000019073
1599,26.
1600,0.800000011921
843,25.6757791340685
876,25.2261914188116
909,25.7486729682304
942,25.7608616451193
975,25.1288967975261
1008,25.2156535531475
1041,24.6702296519532
1074,23.5651090174802
1107,24.7396742551004
1140,23.5475643828258
1173,25.1734573052896
1206,24.2461048466162
1239,25.2368180258012
1272,24.3379977917286
1305,25.2360847135535
1338,24.4240010774468
1371,25.2565902642801
1404,24.3441138122321
1437,24.9808768676791
1593,661572.928561969
1594,2.26023868854079
1595,661575.188800657
1837,8.58363480260577
1851,8.58363480260577
1885,78.1858479265176
2,1, 7, 1, 1, 2,10.00,15.00,Thursday       
6,23.
7,19.2922830522657
8,71.25
9,4.475
10,275.
387,15335.6083286733
419,10899.1190589978
431,10899.1190589978
443,10899.1190589978
455,1348.9583405952
467,869.30104275936
479,1348.9288435616
491,869.30104275936
503,1348.9583405952
515,869.30104275936
527,1348.9288435616
539,869.30104275936
551,1348.9583405952
563,869.30104275936
575,1348.9288435616
587,869.30104275936
767,1.
768,5.
769,1.25
770,0.0
1596,15.6
1597,82.2
1598,6.30000019073
1599,26.
1600,0.800000011921
843,25.6834948330333
876,25.6912087711419
909,26.0814067019099
942,26.1245847286973
975,25.2597403705122
1008,25.3072493735981
1041,25.2525151481375
1074,24.4629496483921
1107,25.2608245839198
1140,24.5141892269283
1173,25.5154268036472
1206,24.7313640548359
1239,25.5402747417878
1272,24.8623070618198
1305,25.5805858088849
1338,24.9025416285211
1371,25.5713228423577
1404,24.8777829159008
1437,25.0335338095942
1593,661572.928561969
1594,2.25820897816509
1595,661575.186770947
1837,8.58363480260577
1851,8.58363480260577
1885,78.1858479265176
2,1, 7, 1, 1, 2,15.00,20.00,Thursday       
6,22.9666666666667
7,19.2734754663502
8,71.3333333333333
9,4.43333333333333
10,276.666666666667
387,15335.6083286733
419,10899.1190589978
431,10899.1190589978
443,10899.1190589978
455,1348.9583405952
467,869.30104275936
479,1348.9288435616
491,869.30104275936
503,1348.9583405952
515,869.30104275936
527,1348.9288435616
539,869.30104275936
551,1348.9583405952
563,869.30104275936
575,1348.9288435616
587,869.30104275936
767,1.
768,5.
769,1.33333333333333
770,0.0
1596,15.6
1597,82.2
1598,6.30000019073
1599,26.
1600,0.800000011921
843,25.690676663023
876,26.015039369659
909,26.3472571551276
942,26.4051012725087
975,25.3475456116085
1008,25.3761607994517
1041,25.5777391518745
1074,24.9443560034093
1107,25.5567951241501
1140,25.0279083837401
1173,25.7351536264167
1206,25.0332041370253
1239,25.7380505262686
1272,25.1835630912805
1305,25.799544813243
1338,25.1977021289055
1371,25.7733364848602
1404,25.2028378731901
1437,25.0681214729742
1593,661572.928561969
1594,2.25670758650223
1595,661575.185269555
1837,8.58363480260577
1851,8.58363480260577
1885,78.1858479265176
2,1, 7, 1, 1, 2,20.00,25.00,Thursday       
6,22.9333333333333
7,19.2546425818059
8,71.4166666666667
9,4.39166666666667
10,278.333333333333
387,15335.6083286733
419,10899.1190589978
431,10899.1190589978
443,10899.1190589978
455,1348.9583405952
467,869.30104275936
479,1348.9288435616
491,869.30104275936
503,1348.9583405952
515,869.30104275936
527,1348.9288435616
539,869.30104275936
551,1348.9583405952
563,869.30104275936
575,1348.9288435616
587,869.30104275936
767,1.
768,5.
769,1.41666666666667
770,0.0
1596,15.6
1597,82.2
1598,6.30000019073
1599,26.
1600,0.800000011921
843,25.6989039646626
876,26.338214428539
909,26.5946000008871
942,26.672779965922
975,25.428221177594
1008,25.4445083395404
1041,25.8341601051025
1074,25.3047766892276
1107,25.7926162665027
1140,25.4083597631851
1173,25.931461226929
1206,25.29682173668
1239,25.9166855254718
1272,25.4537929931527
1305,25.9892407543328
1338,25.4476190983472
1371,25.9485336997113
1404,25.4724470457539
1437,25.1000807948926
1593,661572.928561969
1594,2.2557303762613
1595,661575.184292345
1837,8.58363480260577
1851,8.58363480260577
1885,78.1858479265176
2,1, 7, 1, 1, 2,25.00,30.00,Thursday       
6,22.9
7,19.2357966727834
8,71.5
9,4.35
10,280.
387,15335.6083286733
419,10899.1190589978
431,10899.1190589978
443,10899.1190589978
455,1348.9583405952
467,869.30104275936
479,1348.9288435616
491,869.30104275936
503,1348.9583405952
515,869.30104275936
527,1348.9288435616
539,869.30104275936
551,1348.9583405952
563,869.30104275936
575,1348.9288435616
587,869.30104275936
767,1.
768,5.
769,1.5
770,0.0
1596,15.6
1597,82.2
1598,6.30000019073
1599,26.
1600,0.800000011921
843,25.7038201952275
876,26.4792834649456
909,25.8643625355735
942,25.8369096718595
975,25.4675797033112
1008,25.5445684084415
1041,25.9490470361805
1074,25.4579363190537
1107,25.898803353571
1140,25.5670471463758
1173,24.8403829044155
1206,23.3451820931632
1239,25.0097252070574
1272,23.1833696859753
1305,24.8615735709599
1338,23.4993464729564
1371,24.9638888194577
1404,23.0978313169186
1437,25.2541221730925
1593,661572.928561969
1594,301503.001776339
1595,963075.930338307
1837,6.30000019073
1851,6.30000019073
1885,78.1858479265176
2,1, 7, 1, 1, 2,30.00,35.00,Thursday       
6,22.8666666666667
7,19.2169134529248
8,71.5833333333333
9,4.30833333333333
10,281.666666666667
387,15335.6083286733
419,10899.1190589978
431,10899.1190589978
443,10899.1190589978
455,1348.9583405952
467,869.30104275936
479,1348.9288435616
491,869.30104275936
503,1348.9583405952
515,869.30104275936
527,1348.9288435616
539,869.30104275936
551,1348.9583405952
563,869.30104275936
575,1348.9288435616
587,869.30104275936
767,1.
768,5.
769,1.58333333333333
770,0.0
1596,15.6
1597,82.2
1598,6.30000019073
1599,26.
1600,0.800000011921
843,25.7099388658287
876,25.8619556358247
909,25.380074659049
942,25.2803321800294
975,25.5681823688622
1008,25.4156513014488
1041,24.9854220159111
1074,23.5846347240487
1107,25.0720423019082
1140,23.4845963348738
1173,24.165904956839
1206,22.4482002077191
1239,24.4109405643251
1272,22.2577354798452
1305,24.1864755023546
1338,22.6259453101421
1371,24.3456749484145
1404,22.1835069245027
1437,25.1360315988246
1593,661572.928561969
1594,305016.770445206
1595,966589.699007175
1837,6.30000019073
1851,6.30000019073
1885,78.1858479265176
2,1, 7, 1, 1, 2,35.00,40.00,Thursday       
6,22.8333333333333
7,19.1980159821936
8,71.6666666666667
9,4.26666666666667
10,283.333333333333
387,15335.6083286733
419,10899.1190589978
431,10899.1190589978
443,10899.1190589978
455,1348.9583405952
467,869.30104275936
479,1348.9288435616
491,869.30104275936
503,1348.9583405952
515,869.30104275936
527,1348.9288435616
539,869.30104275936
551,1348.9583405952
563,869.30104275936
575,1348.9288435616
587,869.30104275936
767,1.
768,5.
769,1.66666666666667
770,0.0
1596,15.6
1597,82.2
1598,6.30000019073
1599,26.
1600,0.800000011921
843,25.715841225608
876,25.3698285712105
909,25.1079639756539
942,24.9833438787586
975,25.4626063996117
1008,25.2333971166628
1041,24.3357858747343
1074,22.6983725921378
1107,24.4859925682434
1140,22.5558159948045
1173,23.921411619334
1206,22.206757929999
1239,24.1799568490754
1272,22.0342811414136
1305,23.9481915999413
1338,22.3964921512575
1371,24.1174659767586
1404,21.9755400140195
1437,24.9687491640091
1593,661572.928561969
1594,305317.424606159
1595,966890.353168128
1837,6.30000019073
1851,6.30000019073
1885,78.1858479265176
2,1, 7, 1, 1, 2,40.00,45.00,Thursday       
6,22.8
7,19.179089456465
8,71.75
9,4.225
10,285.
387,15335.6083286733
419,10899.1190589978
431,10899.1190589978
443,10899.1190589978
455,1348.9583405952
467,869.30104275936
479,1348.9288435616
491,869.30104275936
503,1348.9583405952
515,869.30104275936
527,1348.9288435616
539,869.30104275936
551,1348.9583405952
563,869.30104275936
575,1348.9288435616
587,869.30104275936
767,1.
768,5.
769,1.75
770,0.0
1596,15.6
1597,82.2
1598,6.30000019073
1599,26.
1600,0.800000011921
843,25.7228425332084
876,25.0340813314246
909,24.9353343990139
942,24.7991474190765
975,25.2619361118146
1008,25.0713631719594
1041,24.0537988164591
1074,22.4292015270286
1107,24.2184908913674
1140,22.286154771411
1173,23.7910324036098
1206,22.0772350309219
1239,24.0562990831873
1272,21.9063994042234
1305,23.8194794792943
1338,22.2694669519841
1371,23.9939890257736
1404,21.851643653073
1437,24.8276017295917
1593,661572.928561969
1594,308577.890147679
1595,970150.818709648
1837,6.30000019073
1851,6.30000019073
1885,78.1858479265176
2,1, 7, 1, 1, 2,45.00,50.00,Thursday       
6,22.7666666666667
7,19.1601348242713
8,71.8333333333333
9,4.18333333333333
10,286.666666666667
387,15335.6083286733
419,10899.1190589978
431,10899.1190589978
443,10899.1190589978
455,1348.9583405952
467,869.30104275936
479,1348.9288435616
491,869.30104275936
503,1348.9583405952
515,869.30104275936
527,1348.9288435616
539,869.30104275936
551,1348.9583405952
563,869.30104275936
575,1348.9288435616
587,869.30104275936
767,1.
768,5.
769,1.83333333333333
770,0.0
1596,15.6
1597,82.2
1598,6.30000019073
1599,26.
1600,0.800000011921
843,25.7284180928236
876,24.9027699521401
909,24.864383673338
942,24.7231751802841
975,25.1451365804493
1008,24.9902617363111
1041,23.961072844732
1074,22.3361815730271
1107,24.1301670419086
1140,22.1905487624151
1173,23.7358914713378
1206,22.0169138999032
1239,24.0052093954448
1272,21.8428886994311
1305,23.7635617979811
1338,22.2085456488892
1371,23.9412576563721
1404,21.7878292968799
1437,24.7518353118665
1593,661572.928561969
1594,308758.244247372
1595,970331.172809341
1837,6.30000019073
1851,6.30000019073
1885,78.1858479265176
2,1, 7, 1, 1, 2,50.00,55.00,Thursday       
6,22.7333333333333
7,19.1411562313546
8,71.9166666666667
9,4.14166666666667
10,288.333333333333
387,15335.6083286733
419,10899.1190589978
431,10899.1190589978
443,10899.1190589978
455,1348.9583405952
467,869.30104275936
479,1348.9288435616
491,869.30104275936
503,1348.9583405952
515,869.30104275936
527,1348.9288435616
539,869.30104275936
551,1348.9583405952
563,869.30104275936
575,1348.9288435616
587,869.30104275936
767,1.
768,5.
769,1.91666666666667
770,0.0
1596,15.6
1597,82.2
1598,6.30000019073
1599,26.
1600,0.800000011921
843,25.7338756463073
876,24.8262427265964
909,24.8211421054104
942,24.6757318656857
975,25.0640122039729
1008,24.9347707877179
1041,23.9060270146899
1074,22.2751172050616
1107,24.078442331042
1140,22.1260490154405
1173,23.6967778844245
1206,21.9712145792437
1239,23.9697058392538
1272,21.7933594451133
1305,23.7228362578727
1338,22.1614368187031
1371,23.9033673163436
1404,21.7370526014206
1437,24.6949126581925
1593,661572.928561969
1594,308767.22380748
1595,970340.152369449
1837,6.30000019073
1851,6.30000019073
1885,78.1858479265176
2,1, 7, 1, 1, 2,55.00,60.00,Thursday       
6,22.7
7,19.1221644098382
8,72.
9,4.1
10,290.
387,15335.6083286733
419,10899.1190589978
431,10899.1190589978
443,10899.1190589978
455,1348.9583405952
467,869.30104275936
479,1348.9288435616
491,869.30104275936
503,1348.9583405952
515,869.30104275936
527,1348.9288435616
539,869.30104275936
551,1348.9583405952
563,869.30104275936
575,1348.9288435616
587,869.30104275936
767,1.
768,5.
769,2.
770,0.0
1596,15.6
1597,82.2