Program Version,EnergyPlus-Windows-64 8.1.0.009, YMD=2017.08.31 15:50
1,5,Environment Title[],Latitude[deg],Longitude[deg],Time Zone[],Elevation[m]
2,6,Day of Simulation[],Month[],Day of Month[],DST Indicator[1=yes 0=no],Hour[],StartMinute[],EndMinute[],DayType
3,3,Cumulative Day of Simulation[],Month[],Day of Month[],DST Indicator[1=yes 0=no],DayType  ! When Daily Report Variables Requested
4,2,Cumulative Days of Simulation[],Month[]  ! When Monthly Report Variables Requested
5,1,Cumulative Days of Simulation[] ! When Run Period Report Variables Requested
6,1,Environment,Site Outdoor Air Drybulb Temperature [C] !TimeStep
7,1,Environment,Site Outdoor Air Wetbulb Temperature [C] !TimeStep
8,1,Environment,Site Outdoor Air Relative Humidity [%] !TimeStep
9,1,Environment,Site Wind Speed [m/s] !TimeStep
10,1,Environment,Site Wind Direction [deg] !TimeStep
387,1,BASEMENT_PLUGMISC_EQUIP,Electric Equipment Electric Power [W] !TimeStep
419,1,CORE_BOTTOM_PLUGMISC_EQUIP,Electric Equipment Electric Power [W] !TimeStep
431,1,CORE_MID_PLUGMISC_EQUIP,Electric Equipment Electric Power [W] !TimeStep
443,1,CORE_TOP_PLUGMISC_EQUIP,Electric Equipment Electric Power [W] !TimeStep
455,1,PERIMETER_BOT_ZN_1_PLUGMISC_EQUIP,Electric Equipment Electric Power [W] !TimeStep
467,1,PERIMETER_BOT_ZN_2_PLUGMISC_EQUIP,Electric Equipment Electric Power [W] !TimeStep
479,1,PERIMETER_BOT_ZN_3_PLUGMISC_EQUIP,Electric Equipment Electric Power [W] !TimeStep
491,1,PERIMETER_BOT_ZN_4_PLUGMISC_EQUIP,Electric Equipment Electric Power [W] !TimeStep
503,1,PERIMETER_MID_ZN_1_PLUGMISC_EQUIP,Electric Equipment Electric Power [W] !TimeStep
515,1,PERIMETER_MID_ZN_2_PLUGMISC_EQUIP,Electric Equipment Electric Power [W] !TimeStep
527,1,PERIMETER_MID_ZN_3_PLUGMISC_EQUIP,Electric Equipment Electric Power [W] !TimeStep
539,1,PERIMETER_MID_ZN_4_PLUGMISC_EQUIP,Electric Equipment Electric Power [W] !TimeStep
551,1,PERIMETER_TOP_ZN_1_PLUGMISC_EQUIP,Electric Equipment Electric Power [W] !TimeStep
563,1,PERIMETER_TOP_ZN_2_PLUGMISC_EQUIP,Electric Equipment Electric Power [W] !TimeStep
575,1,PERIMETER_TOP_ZN_3_PLUGMISC_EQUIP,Electric Equipment Electric Power [W] !TimeStep
587,1,PERIMETER_TOP_ZN_4_PLUGMISC_EQUIP,Electric Equipment Electric Power [W] !TimeStep
767,1,EMS,currentDayOfMonth [] !TimeStep
768,1,EMS,currentDayOfWeek [] !TimeStep
769,1,EMS,currentTimeOfDay [] !TimeStep
770,1,EMS,currentHoliday [] !TimeStep
843,1,BASEMENT,Zone Air Temperature [C] !TimeStep
876,1,CORE_BOTTOM,Zone Air Temperature [C] !TimeStep
909,1,CORE_MID,Zone Air Temperature [C] !TimeStep
942,1,CORE_TOP,Zone Air Temperature [C] !TimeStep
975,1,GROUNDFLOOR_PLENUM,Zone Air Temperature [C] !TimeStep
1008,1,MIDFLOOR_PLENUM,Zone Air Temperature [C] !TimeStep
1041,1,PERIMETER_BOT_ZN_1,Zone Air Temperature [C] !TimeStep
1074,1,PERIMETER_BOT_ZN_2,Zone Air Temperature [C] !TimeStep
1107,1,PERIMETER_BOT_ZN_3,Zone Air Temperature [C] !TimeStep
1140,1,PERIMETER_BOT_ZN_4,Zone Air Temperature [C] !TimeStep
1173,1,PERIMETER_MID_ZN_1,Zone Air Temperature [C] !TimeStep
1206,1,PERIMETER_MID_ZN_2,Zone Air Temperature [C] !TimeStep
1239,1,PERIMETER_MID_ZN_3,Zone Air Temperature [C] !TimeStep
1272,1,PERIMETER_MID_ZN_4,Zone Air Temperature [C] !TimeStep
1305,1,PERIMETER_TOP_ZN_1,Zone Air Temperature [C] !TimeStep
1338,1,PERIMETER_TOP_ZN_2,Zone Air Temperature [C] !TimeStep
1371,1,PERIMETER_TOP_ZN_3,Zone Air Temperature [C] !TimeStep
1404,1,PERIMETER_TOP_ZN_4,Zone Air Temperature [C] !TimeStep
1437,1,TOPFLOOR_PLENUM,Zone Air Temperature [C] !TimeStep
1593,1,Whole Building,Facility Total Building Electric Demand Power [W] !TimeStep
1594,1,Whole Building,Facility Total HVAC Electric Demand Power [W] !TimeStep
1595,1,Whole Building,Facility Total Electric Demand Power [W] !TimeStep
1596,1,HTGSETP_SCH,Schedule Value [] !TimeStep
1597,1,HW-LOOP-TEMP-SCHEDULE,Schedule Value [] !TimeStep
1598,1,CW-LOOP-TEMP-SCHEDULE,Schedule Value [] !TimeStep
1599,1,CLGSETP_SCH,Schedule Value [] !TimeStep
1600,1,BLDG_LIGHT_SCH,Schedule Value [] !TimeStep
1837,1,COOLSYS1 CHILLER 1,Chiller Evaporator Outlet Temperature [C] !TimeStep
1851,1,COOLSYS1 CHILLER 2,Chiller Evaporator Outlet Temperature [C] !TimeStep
1885,1,HEATSYS1 BOILER,Boiler Outlet Temperature [C] !TimeStep
End of Data Dictionary
1,587017 587017 587017 TMY2 WMO#=587017,  41.99, -87.50,  -6.00, 172.00
2,1, 7, 1, 1, 1, 0.00, 5.00,Thursday       
6,22.7333333333333
7,20.2498447537494
8,80.1666666666667
9,2.30833333333333
10,178.333333333333
387,15335.6083286733
419,10899.1190589978
431,10899.1190589978
443,10899.1190589978
455,1348.9583405952
467,869.30104275936
479,1348.9288435616
491,869.30104275936
503,1348.9583405952
515,869.30104275936
527,1348.9288435616
539,869.30104275936
551,1348.9583405952
563,869.30104275936
575,1348.9288435616
587,869.30104275936
767,1.
768,5.
769,8.333333333333333E-002
770,0.0
1596,15.6
1597,82.2
1598,6.3
1599,26.
1600,0.8
843,24.7848717039092
876,24.674625363503
909,24.699283569354
942,24.762515726901
975,24.9881771684738
1008,24.9396262831319
1041,24.545417353025
1074,23.5433507625376
1107,24.559100559576
1140,23.5416974451679
1173,24.4952979216115
1206,23.320092599807
1239,24.5431723029949
1272,23.3544532677444
1305,24.5696953816354
1338,23.5837590108981
1371,24.5865015401863
1404,23.4103786814607
1437,24.8302911291758
1593,661572.922620456
1594,2.25730056112338
1595,661575.179921017
1837,10.1194320433259
1851,10.1194320433259
1885,78.1858479265176
2,1, 7, 1, 1, 1, 5.00,10.00,Thursday       
6,22.7666666666667
7,20.171290993682
8,79.3333333333333
9,2.51666666666667
10,186.666666666667
387,15335.6083286733
419,10899.1190589978
431,10899.1190589978
443,10899.1190589978
455,1348.9583405952
467,869.30104275936
479,1348.9288435616
491,869.30104275936
503,1348.9583405952
515,869.30104275936
527,1348.9288435616
539,869.30104275936
551,1348.9583405952
563,869.30104275936
575,1348.9288435616
587,869.30104275936
767,1.
768,5.
769,0.166666666666667
770,0.0
1596,15.6
1597,82.2
1598,6.3
1599,26.
1600,0.8
843,25.0512668619852
876,25.2476901753145
909,25.2900514568008
942,25.3963157869711
975,25.1240551128693
1008,25.0804546195583
1041,25.100262876032
1074,24.3589649025254
1107,25.0776315000881
1140,24.4263132071068
1173,25.057437963279
1206,24.1466483151285
1239,25.0672917592898
1272,24.267673844735
1305,25.1562531854572
1338,24.4006823254107
1371,25.1382427721374
1404,24.3452595784523
1437,24.9239980593178
1593,661572.922620456
1594,2.2552674124245
1595,661575.177887868
1837,10.1194320433259
1851,10.1194320433259
1885,78.1858479265176
2,1, 7, 1, 1, 1,10.00,15.00,Thursday       
6,22.8
7,20.0920880576265
8,78.5
9,2.725
10,195.
387,15335.6083286733
419,10899.1190589978
431,10899.1190589978
443,10899.1190589978
455,1348.9583405952
467,869.30104275936
479,1348.9288435616
491,869.30104275936
503,1348.9583405952
515,869.30104275936
527,1348.9288435616
539,869.30104275936
551,1348.9583405952
563,869.30104275936
575,1348.9288435616
587,869.30104275936
767,1.
768,5.
769,0.25
770,0.0
1596,15.6
1597,82.2
1598,6.3
1599,26.
1600,0.8
843,25.2460613752283
876,25.6302083417867
909,25.6823528456963
942,25.8104570009189
975,25.218893577681
1008,25.178515014451
1041,25.4194910895223
1074,24.8099129208653
1107,25.3776269243543
1140,24.9093105021637
1173,25.3794386794813
1206,24.6004559896166
1239,25.3689593270771
1272,24.7611521874541
1305,25.4859889054774
1338,24.8451224888617
1371,25.4502210325264
1404,24.8458318141443
1437,24.9812825036695
1593,661572.922620456
1594,2.25376112909124
1595,661575.176381585
1837,10.1194320433259
1851,10.1194320433259
1885,78.1858479265176
2,1, 7, 1, 1, 1,15.00,20.00,Thursday       
6,22.8333333333333
7,20.0122132707474
8,77.6666666666667
9,2.93333333333333
10,203.333333333333
387,15335.6083286733
419,10899.1190589978
431,10899.1190589978
443,10899.1190589978
455,1348.9583405952
467,869.30104275936
479,1348.9288435616
491,869.30104275936
503,1348.9583405952
515,869.30104275936
527,1348.9288435616
539,869.30104275936
551,1348.9583405952
563,869.30104275936
575,1348.9288435616
587,869.30104275936
767,1.
768,5.
769,0.333333333333333
770,0.0
1596,15.6
1597,82.2
1598,6.3
1599,26.
1600,0.8
843,25.4120047275017
876,25.988455400292
909,26.045642622231
942,26.1857270865075
975,25.3087718631759
1008,25.2712136463539
1041,25.6790517986472
1074,25.1620891298939
1107,25.6219344638492
1140,25.2820093674372
1173,25.6387988934076
1206,24.952362319735
1239,25.6123668725596
1272,25.137054072788
1305,25.7463994290416
1338,25.185608449416
1371,25.6972028101975
1404,25.2229792123298
1437,25.0351226003972
1593,661572.922620456
1594,2.25277758533604
1595,661575.175398041
1837,10.1194320433259
1851,10.1194320433259
1885,78.1858479265176
2,1, 7, 1, 1, 1,20.00,25.00,Thursday       
6,22.8666666666667
7,19.9316656965657
8,76.8333333333333
9,3.14166666666667
10,211.666666666667
387,15335.6083286733
419,10899.1190589978
431,10899.1190589978
443,10899.1190589978
455,1348.9583405952
467,869.30104275936
479,1348.9288435616
491,869.30104275936
503,1348.9583405952
515,869.30104275936
527,1348.9288435616
539,869.30104275936
551,1348.9583405952
563,869.30104275936
575,1348.9288435616
587,869.30104275936
767,1.
768,5.
769,0.416666666666667
770,0.0
1596,15.6
1597,82.2
1598,6.3
1599,26.
1600,0.8
843,25.4930917774258
876,26.2171468494829
909,26.2754167649709
942,26.4236832550419
975,25.3672696070023
1008,25.3313282251908
1041,25.836595186645
1074,25.3656733272321
1107,25.7709581200124
1140,25.4924267990468
1173,25.7926465540489
1206,25.1556957359051
1239,25.7560868787272
1272,25.3457736829195
1305,25.895450808369
1338,25.3760614444415
1371,25.8382552634943
1404,25.4290669352311
1437,25.0731219212908
1593,661572.922620456
1594,2.2522352936245
1595,661575.174855749
1837,10.1194320433259
1851,10.1194320433259
1885,78.1858479265176
2,1, 7, 1, 1, 1,25.00,30.00,Thursday       
6,22.9
7,19.8504550328849
8,76.
9,3.35
10,220.
387,15335.6083286733
419,10899.1190589978
431,10899.1190589978
443,10899.1190589978
455,1348.9583405952
467,869.30104275936
479,1348.9288435616
491,869.30104275936
503,1348.9583405952
515,869.30104275936
527,1348.9288435616
539,869.30104275936
551,1348.9583405952
563,869.30104275936
575,1348.9288435616
587,869.30104275936
767,1.
768,5.
769,0.5
770,0.0
1596,15.6
1597,82.2
1598,6.3
1599,26.
1600,0.8
843,25.5459102209053
876,26.3862328934511
909,26.446524781321
942,26.6014636028163
975,25.4178738926946
1008,25.3833242086932
1041,25.9583264479604
1074,25.5252579915932
1107,25.8874484610953
1140,25.6611884397251
1173,25.9160615074446
1206,25.3208077918167
1239,25.873016852955
1272,25.5186021691273
1305,26.0174096371433
1338,25.5338341740552
1371,25.9548140133503
1404,25.5952223956307
1437,25.1086110501478
1593,661572.922620456
1594,2.25213657633728
1595,661575.174757032
1837,10.1194320433259
1851,10.1194320433259
1885,78.1858479265176
2,1, 7, 1, 1, 1,30.00,35.00,Thursday       
6,22.9333333333333
7,19.7685478079369
8,75.1666666666667
9,3.55833333333333
10,228.333333333333
387,15335.6083286733
419,10899.1190589978
431,10899.1190589978
443,10899.1190589978
455,1348.9583405952
467,869.30104275936
479,1348.9288435616
491,869.30104275936
503,1348.9583405952
515,869.30104275936
527,1348.9288435616
539,869.30104275936
551,1348.9583405952
563,869.30104275936
575,1348.9288435616
587,869.30104275936
767,1.
768,5.
769,0.583333333333333
770,0.0
1596,15.6
1597,82.2
1598,6.3
1599,26.
1600,0.8
843,25.5733523389328
876,26.4834068994994
909,26.2638956902566
942,25.8268291083974
975,25.452530369058
1008,25.4624772626188
1041,26.0305279024619
1074,25.6245816873579
1107,25.956707824299
1140,25.7656509990784
1173,25.5832837399415
1206,24.6850351343828
1239,25.6036426748276
1272,24.7813069755326
1305,24.8953739854708
1338,23.5710618239197
1371,24.9723908279794
1404,23.2274327991853
1437,25.260197352185
1593,661572.922620456
1594,251465.068327915
1595,913037.990948371
1837,6.3
1851,6.3
1885,78.1858479265176
2,1, 7, 1, 1, 1,35.00,40.00,Thursday       
6,22.9666666666667
7,19.6859534820878
8,74.3333333333333
9,3.76666666666667
10,236.666666666667
387,15335.6083286733
419,10899.1190589978
431,10899.1190589978
443,10899.1190589978
455,1348.9583405952
467,869.30104275936
479,1348.9288435616
491,869.30104275936
503,1348.9583405952
515,869.30104275936
527,1348.9288435616
539,869.30104275936
551,1348.9583405952
563,869.30104275936
575,1348.9288435616
587,869.30104275936
767,1.
768,5.
769,0.666666666666667
770,0.0
1596,15.6
1597,82.2
1598,6.3
1599,26.
1600,0.8
843,25.6004622283469
876,25.8556674763127
909,25.5202439258076
942,25.232565778539
975,25.5584489225875
1008,25.4927789812963
1041,25.0493207156866
1074,23.7586219046613
1107,25.1137821978844
1140,23.6775668462621
1173,24.4602113841608
1206,22.8881320242086
1239,24.6475841324601
1272,22.7778465035276
1305,24.1979734568534
1338,22.6607817809387
1371,24.3380856104044
1404,22.2599787708651
1437,25.1599343146343
1593,661572.922620456
1594,328868.603407654
1595,990441.526028109
1837,6.3
1851,6.3
1885,78.1858479265176
2,1, 7, 1, 1, 1,40.00,45.00,Thursday       
6,23.
7,19.6026694467392
8,73.5
9,3.975
10,245.
387,15335.6083286733
419,10899.1190589978
431,10899.1190589978
443,10899.1190589978
455,1348.9583405952
467,869.30104275936
479,1348.9288435616
491,869.30104275936
503,1348.9583405952
515,869.30104275936
527,1348.9288435616
539,869.30104275936
551,1348.9583405952
563,869.30104275936
575,1348.9288435616
587,869.30104275936
767,1.
768,5.
769,0.75
770,0.0
1596,15.6
1597,82.2
1598,6.3
1599,26.
1600,0.8
843,25.6201706124792
876,25.3318198727244
909,25.1169222629083
942,24.9125377126785
975,25.4586035006129
1008,25.3095278891019
1041,24.3606603120746
1074,22.7843705614725
1107,24.4953469386099
1140,22.6556982806214
1173,24.0130551772649
1206,22.3408042414761
1239,24.245035921443
1272,22.2096202806231
1305,23.9486785028828
1338,22.4213790761797
1371,24.1032136702353
1404,22.0326721501762
1437,24.9999622596725
1593,661572.922620456
1594,321618.578674762
1595,983191.501295218
1837,6.3
1851,6.3
1885,78.1858479265176
2,1, 7, 1, 1, 1,45.00,50.00,Thursday       
6,23.0333333333333
7,19.5186647384434
8,72.6666666666667
9,4.18333333333333
10,253.333333333333
387,15335.6083286733
419,10899.1190589978
431,10899.1190589978
443,10899.1190589978
455,1348.9583405952
467,869.30104275936
479,1348.9288435616
491,869.30104275936
503,1348.9583405952
515,869.30104275936
527,1348.9288435616
539,869.30104275936
551,1348.9583405952
563,869.30104275936
575,1348.9288435616
587,869.30104275936
767,1.
768,5.
769,0.833333333333333
770,0.0
1596,15.6
1597,82.2
1598,6.3
1599,26.
1600,0.8
843,25.6385155109598
876,24.9699756436366
909,24.873108082864
942,24.7177581302281
975,25.2513414063742
1008,25.1001391835885
1041,24.050035025711
1074,22.457226210198
1107,24.2044398367305
1140,22.3294709665868
1173,23.811065224113
1206,22.1274770988492
1239,24.0588507806315
1272,21.9915406489049
1305,23.8205126322701
1338,22.2969881816146
1371,23.9827371402885
1404,21.908558796546
1437,24.8638410595844
1593,661572.922620456
1594,321335.734742534
1595,982908.657362989
1837,6.3
1851,6.3
1885,78.1858479265176
2,1, 7, 1, 1, 1,50.00,55.00,Thursday       
6,23.0666666666667
7,19.4339615202803
8,71.8333333333333
9,4.39166666666667
10,261.666666666667
387,15335.6083286733
419,10899.1190589978
431,10899.1190589978
443,10899.1190589978
455,1348.9583405952
467,869.30104275936
479,1348.9288435616
491,869.30104275936
503,1348.9583405952
515,869.30104275936
527,1348.9288435616
539,869.30104275936
551,1348.9583405952
563,869.30104275936
575,1348.9288435616
587,869.30104275936
767,1.
768,5.
769,0.916666666666667
770,0.0
1596,15.6
1597,82.2
1598,6.3
1599,26.
1600,0.8
843,25.6502844512781
876,24.8303663242106
909,24.7786284485909
942,24.6400963015388
975,25.1278136966836
1008,24.9932590585823
1041,23.9540939657922
1074,22.3552924513166
1107,24.1143071925236
1140,22.2249833096706
1173,23.7428345299356
1206,22.0515266635391
1239,23.9965934684922
1272,21.9107406080907
1305,23.7695712649487
1338,22.2407564661634
1371,23.9357776464155
1404,21.8477290241365
1437,24.7952190693924
1593,661572.922620456
1594,319042.986904294
1595,980615.909524749
1837,6.3
1851,6.3
1885,78.1858479265176
2,1, 7, 1, 1, 1,55.00,60.00,Thursday       
6,23.1
7,19.3485392703465
8,71.
9,4.6
10,270.
387,15335.6083286733
419,10899.1190589978
431,10899.1190589978
443,10899.1190589978
455,1348.9583405952
467,869.30104275936
479,1348.9288435616
491,869.30104275936
503,1348.9583405952
515,869.30104275936
527,1348.9288435616
539,869.30104275936
551,1348.9583405952
563,869.30104275936
575,1348.9288435616
587,869.30104275936
767,1.
768,5.
769,1.
770,0.0
1596,15.6
1597,82.2
1598,6.3
1599,26.
1600,0.8
843,25.6604049136624
876,24.7505307865699
909,24.7244350977673
942,24.5933990272732
975,25.0423714104857
1008,24.9228397136176
1041,23.9010209922943
1074,22.294489259637
1107,24.0657918546033
1140,22.1608159665962
1173,23.7019253771844
1206,22.0029023920149
1239,23.9601965897758
1272,21.8572112241764
1305,23.7350246413184
1338,22.1990337702345
1371,23.9044504792243
1404,21.8017436033732
1437,24.7455738941641
1593,661572.922620456
1594,316999.613313038
1595,978572.535933494
1837,6.3
1851,6.3
1885,78.1858479265176
2,1, 7, 1, 1, 2, 0.00, 5.00,Thursday       
6,23.0666666666667
7,19.3298117353406
8,71.0833333333333
9,4.55833333333333
10,271.666666666667
387,15335.6083286733
419,10899.1190589978
431,10899.1190589978
443,10899.1190589978
455,1348.9583405952
467,869.30104275936
479,1348.9288435616
491,869.30104275936
503,1348.9583405952
515,869.30104275936
527,1348.9288435616
539,869.30104275936
551,1348.9583405952
563,869.30104275936
575,1348.9288435616
587,869.30104275936
767,1.
768,5.
769,1.08333333333333
770,0.0
1596,15.6
1597,82.2
1598,6.3
1599,26.
1600,0.8
843,25.6674010530693
876,24.712363637689
909,25.267754212033
942,25.2195523606846
975,24.9948033411775
1008,25.0784989292847
1041,23.8713621248392
1074,22.2565956130846
1107,24.0389755724988
1140,22.1198955817176
1173,24.5559663156488
1206,23.3348933749723
1239,24.6965778113862
1272,23.34027302985
1305,24.608675686998
1338,23.5211147384068
1371,24.6884417977121
1404,23.3242367224452
1437,24.8809728573155
1593,661572.922620456
1594,127216.982017099
1595,788789.904637555
1837,6.3
1851,6.3
1885,78.1858479265176
2,1, 7, 1, 1, 2, 5.00,10.00,Thursday       
6,23.0333333333333
7,19.3110541391851
8,71.1666666666667
9,4.51666666666667
10,273.333333333333
387,15335.6083286733
419,10899.1190589978
431,10899.1190589978
443,10899.1190589978
455,1348.9583405952
467,869.30104275936
479,1348.9288435616
491,869.30104275936
503,1348.9583405952
515,869.30104275936
527,1348.9288435616
539,869.30104275936
551,1348.9583405952
563,869.30104275936
575,1348.9288435616
587,869.30104275936
767,1.
768,5.
769,1.16666666666667
770,0.0
1596,15.6
1597,82.2
1598,6.3
1599,26.
1600,0.8
843,25.6757791270551
876,25.2261914096081
909,25.7486729585319
942,25.7608616346858
975,25.1288967936143
1008,25.2156535499075
1041,24.6702296438411
1074,23.565109009407
1107,24.7396742469708
1140,23.5475643747197
1173,25.1734572971593
1206,24.2461048386757
1239,25.2368180174829
1272,24.3379977839032
1305,25.2360847047329
1338,24.4240010686679
1371,25.2565902554428
1404,24.3441138035529
1437,24.9808768630984
1593,661572.922620456
1594,2.26023868854079
1595,661575.182859144
1837,8.58363461234383
1851,8.58363461234383
1885,78.1858479265176
2,1, 7, 1, 1, 2,10.00,15.00,Thursday       
6,23.
7,19.2922830522657
8,71.25
9,4.475
10,275.
387,15335.6083286733
419,10899.1190589978
431,10899.1190589978
443,10899.1190589978
455,1348.9583405952
467,869.30104275936
479,1348.9288435616
491,869.30104275936
503,1348.9583405952
515,869.30104275936
527,1348.9288435616
539,869.30104275936
551,1348.9583405952
563,869.30104275936
575,1348.9288435616
587,869.30104275936
767,1.
768,5.
769,1.25
770,0.0
1596,15.6
1597,82.2
1598,6.3
1599,26.
1600,0.8
843,25.6834948259004
876,25.6912087611482
909,26.0814066913491
942,26.1245847175864
975,25.2597403668513
1008,25.3072493703902
1041,25.2525151394206
1074,24.4629496397197
1107,25.2608245752355
1140,24.5141892182391
1173,25.515426794982
1206,24.7313640461995
1239,25.5402747328763
1272,24.8623070532904
1305,25.5805857996595
1338,24.9025416192539
1371,25.5713228330758
1404,24.8777829067588
1437,25.0335338049804
1593,661572.922620456
1594,2.25820897816509
1595,661575.180829434
1837,8.58363461234383
1851,8.58363461234383
1885,78.1858479265176
2,1, 7, 1, 1, 2,15.00,20.00,Thursday       
6,22.9666666666667
7,19.2734754663502
8,71.3333333333333
9,4.43333333333333
10,276.666666666667
387,15335.6083286733
419,10899.1190589978
431,10899.1190589978
443,10899.1190589978
455,1348.9583405952
467,869.30104275936
479,1348.9288435616
491,869.30104275936
503,1348.9583405952
515,869.30104275936
527,1348.9288435616
539,869.30104275936
551,1348.9583405952
563,869.30104275936
575,1348.9288435616
587,869.30104275936
767,1.
768,5.
769,1.33333333333333
770,0.0
1596,15.6
1597,82.2
1598,6.3
1599,26.
1600,0.8
843,25.6906766557752
876,26.0150393588949
909,26.347257143786
942,26.4051012604543
975,25.3475456080566
1008,25.3761607961892
1041,25.5777391426415
1074,24.9443559942797
1107,25.5567951150288
1140,25.0279083746065
1173,25.7351536172546
1206,25.0332041277881
1239,25.738050516792
1272,25.183563082157
1305,25.7995448035848
1338,25.197702119152
1371,25.7733364751152
1404,25.2028378636069
1437,25.0681214682337
1593,661572.922620456
1594,2.25670758650223
1595,661575.179328042
1837,8.58363461234383
1851,8.58363461234383
1885,78.1858479265176
2,1, 7, 1, 1, 2,20.00,25.00,Thursday       
6,22.9333333333333
7,19.2546425818059
8,71.4166666666667
9,4.39166666666667
10,278.333333333333
387,15335.6083286733
419,10899.1190589978
431,10899.1190589978
443,10899.1190589978
455,1348.9583405952
467,869.30104275936
479,1348.9288435616
491,869.30104275936
503,1348.9583405952
515,869.30104275936
527,1348.9288435616
539,869.30104275936
551,1348.9583405952
563,869.30104275936
575,1348.9288435616
587,869.30104275936
767,1.
768,5.
769,1.41666666666667
770,0.0
1596,15.6
1597,82.2
1598,6.3
1599,26.
1600,0.8
843,25.6989039572796
876,26.3382144169853
909,26.5945999889334
942,26.6727799532048
975,25.4282211740477
1008,25.4445083361137
1041,25.8341600952239
1074,25.3047766795678
1107,25.7926162567729
1140,25.4083597535503
1173,25.931461217156
1206,25.2968217265953
1239,25.9166855153621
1272,25.4537929832833
1305,25.9892407439956
1338,25.4476190878832
1371,25.9485336892715
1404,25.4724470355865
1437,25.1000807899343
1593,661572.922620456
1594,2.2557303762613
1595,661575.178350832
1837,8.58363461234383
1851,8.58363461234383
1885,78.1858479265176
2,1, 7, 1, 1, 2,25.00,30.00,Thursday       
6,22.9
7,19.2357966727834
8,71.5
9,4.35
10,280.
387,15335.6083286733
419,10899.1190589978
431,10899.1190589978
443,10899.1190589978
455,1348.9583405952
467,869.30104275936
479,1348.9288435616
491,869.30104275936
503,1348.9583405952
515,869.30104275936
527,1348.9288435616
539,869.30104275936
551,1348.9583405952
563,869.30104275936
575,1348.9288435616
587,869.30104275936
767,1.
768,5.
769,1.5
770,0.0
1596,15.6
1597,82.2
1598,6.3
1599,26.
1600,0.8
843,25.7038201877615
876,26.4792834531239
909,25.8643625330859
942,25.836909674677
975,25.467579699696
1008,25.5445684041332
1041,25.9490470259676
1074,25.4579363090718
1107,25.8988033435425
1140,25.5670471363676
1173,24.8403829005877
1206,23.3451820948822
1239,25.0097252019877
1272,23.1833696892696
1305,24.861573569843
1338,23.4993464797004
1371,24.9638888170994
1404,23.0978313263488
1437,25.254122165988
1593,661572.922620456
1594,301503.00364722
1595,963075.926267675
1837,6.3
1851,6.3
1885,78.1858479265176
2,1, 7, 1, 1, 2,30.00,35.00,Thursday       
6,22.8666666666667
7,19.2169134529248
8,71.5833333333333
9,4.30833333333333
10,281.666666666667
387,15335.6083286733
419,10899.1190589978
431,10899.1190589978
443,10899.1190589978
455,1348.9583405952
467,869.30104275936
479,1348.9288435616
491,869.30104275936
503,1348.9583405952
515,869.30104275936
527,1348.9288435616
539,869.30104275936
551,1348.9583405952
563,869.30104275936
575,1348.9288435616
587,869.30104275936
767,1.
768,5.
769,1.58333333333333
770,0.0
1596,15.6
1597,82.2
1598,6.3
1599,26.
1600,0.8
843,25.7099388582598
876,25.8619556318238
909,25.3800746537014
942,25.2803321813299
975,25.5681823629217
1008,25.4156512980104
1041,24.9854219974029
1074,23.5846346978811
1107,25.0720422843001
1140,23.4845963075287
1173,24.1659049519594
1206,22.4482002059753
1239,24.4109405582514
1272,22.2577354788516
1305,24.1864755029406
1338,22.6259453169612
1371,24.3456749477483
1404,22.1835069335455
1437,25.1360315942061
1593,661572.922620456
1594,305016.772369738
1595,966589.694990193
1837,6.3
1851,6.3
1885,78.1858479265176
2,1, 7, 1, 1, 2,35.00,40.00,Thursday       
6,22.8333333333333
7,19.1980159821936
8,71.6666666666667
9,4.26666666666667
10,283.333333333333
387,15335.6083286733
419,10899.1190589978
431,10899.1190589978
443,10899.1190589978
455,1348.9583405952
467,869.30104275936
479,1348.9288435616
491,869.30104275936
503,1348.9583405952
515,869.30104275936
527,1348.9288435616
539,869.30104275936
551,1348.9583405952
563,869.30104275936
575,1348.9288435616
587,869.30104275936
767,1.
768,5.
769,1.66666666666667
770,0.0
1596,15.6
1597,82.2
1598,6.3
1599,26.
1600,0.8
843,25.7158412179412
876,25.3698285749734
909,25.1079639686025
942,24.9833438751937
975,25.4626063938482
1008,25.2333971128707
1041,24.3357858786846
1074,22.6983726092708
1107,24.4859925703017
1140,22.5558160150387
1173,23.92141161404
1206,22.2067579266642
1239,24.1799568424312
1272,22.0342811385849
1305,23.9481915963733
1338,22.3964921506392
1371,24.1174659723756
1404,21.9755400149025
1437,24.968749160225
1593,661572.922620456
1594,305317.426283562
1595,966890.348904018
1837,6.3
1851,6.3
1885,78.1858479265176
2,1, 7, 1, 1, 2,40.00,45.00,Thursday       
6,22.8
7,19.179089456465
8,71.75
9,4.225
10,285.
387,15335.6083286733
419,10899.1190589978
431,10899.1190589978
443,10899.1190589978
455,1348.9583405952
467,869.30104275936
479,1348.9288435616
491,869.30104275936
503,1348.9583405952
515,869.30104275936
527,1348.9288435616
539,869.30104275936
551,1348.9583405952
563,869.30104275936
575,1348.9288435616
587,869.30104275936
767,1.
768,5.
769,1.75
770,0.0
1596,15.6
1597,82.2
1598,6.3
1599,26.
1600,0.8
843,25.7228425254293
876,25.0340813307186
909,24.9353343899851
942,24.7991474117548
975,25.2619361113333
1008,25.071363167937
1041,24.0537988148564
1074,22.4292015289124
1107,24.2184908893648
1140,22.2861547736668
1173,23.7910323967769
1206,22.0772350245945
1239,24.0562990749828
1272,21.9063993980326
1305,23.8194794726668
1338,22.2694669466299
1371,23.9939890185575
1404,21.8516436488238
1437,24.8276017252957
1593,661572.922620456
1594,308577.892163611
1595,970150.814784066
1837,6.3
1851,6.3
1885,78.1858479265176
2,1, 7, 1, 1, 2,45.00,50.00,Thursday       
6,22.7666666666667
7,19.1601348242713
8,71.8333333333333
9,4.18333333333333
10,286.666666666667
387,15335.6083286733
419,10899.1190589978
431,10899.1190589978
443,10899.1190589978
455,1348.9583405952
467,869.30104275936
479,1348.9288435616
491,869.30104275936
503,1348.9583405952
515,869.30104275936
527,1348.9288435616
539,869.30104275936
551,1348.9583405952
563,869.30104275936
575,1348.9288435616
587,869.30104275936
767,1.
768,5.
769,1.83333333333333
770,0.0
1596,15.6
1597,82.2
1598,6.3
1599,26.
1600,0.8
843,25.72841808496
876,24.9027699469425
909,24.8643836631783
942,24.7231751712183
975,25.1451365789494
1008,24.990261731709
1041,23.9610728390656
1074,22.3361815696316
1107,24.1301670363687
1140,22.1905487592238
1173,23.7358914638153
1206,22.0169138925501
1239,24.005209386422
1272,21.8428886921344
1305,23.7635617901512
1338,22.2085456420315
1371,23.9412576479894
1404,21.787829291201
1437,24.7518353066285
1593,661572.922620456
1594,308758.245965662
1595,970331.168586118
1837,6.3
1851,6.3
1885,78.1858479265176
2,1, 7, 1, 1, 2,50.00,55.00,Thursday       
6,22.7333333333333
7,19.1411562313546
8,71.9166666666667
9,4.14166666666667
10,288.333333333333
387,15335.6083286733
419,10899.1190589978
431,10899.1190589978
443,10899.1190589978
455,1348.9583405952
467,869.30104275936
479,1348.9288435616
491,869.30104275936
503,1348.9583405952
515,869.30104275936
527,1348.9288435616
539,869.30104275936
551,1348.9583405952
563,869.30104275936
575,1348.9288435616
587,869.30104275936
767,1.
768,5.
769,1.91666666666667
770,0.0
1596,15.6
1597,82.2
1598,6.3
1599,26.
1600,0.8
843,25.7338756383662
876,24.8262427190029
909,24.8211420945515
942,24.6757318555617
975,25.0640122012646
1008,24.934770782654
1041,23.90602700737
1074,22.2751171996845
1107,24.0784423240912
1140,22.1260490101252
1173,23.6967778766242
1206,21.9712145714264
1239,23.969705829776
1272,21.7933594372825
1305,23.7228362493385
1338,22.1614368109664
1371,23.9033673072598
1404,21.737052594934
1437,24.6949126522409
1593,661572.922620456
1594,308767.225925137
1595,970340.148545592
1837,6.3
1851,6.3
1885,78.1858479265176
2,1, 7, 1, 1, 2,55.00,60.00,Thursday       
6,22.7
7,19.1221644098382
8,72.
9,4.1
10,290.
387,15335.6083286733
419,10899.1190589978
431,10899.1190589978
443,10899.1190589978
455,1348.9583405952
467,869.30104275936
479,1348.9288435616
491,869.30104275936
503,1348.9583405952
515,869.30104275936
527,1348.9288435616
539,869.30104275936
551,1348.9583405952
563,869.30104275936
575,1348.9288435616
587,869.30104275936
767,1.
768,5.
769,2.
770,0.0
1596,15.6
1597,82.2
1598,6.3
1599,26.
1600,0.8
843,25.738033301756
876,24.7886723563198
909,25.3724151071856
942,25.3047071666589
975,25.0181400183954
1008,25.0939372996512
1041,23.8746842566864
1074,22.236955548749
1107,24.0495363140879
1140,22.0849824496868
1173,24.5535251463164
1206,23.3000283612104
1239,24.7031112394526
1272,23.2685709676417
1305,24.5933664764525
1338,23.476016963439
1371,24.6798198975637
1404,23.2471303388183
1437,24.8131254153106
1593,661572.922620456
1594,123604.507767757
1595,785177.430388213
1837,6.3
1851,6.3
1885,78.1858479265176
2,1, 7, 1, 1, 3, 0.00, 5.00,Thursday       
6,22.6666666666667
7,19.1145441678043
8,72.1666666666667
9,4.01666666666667
10,290.833333333333
387,15335.6083286733
419,10899.1190589978
431,10899.1190589978